#    7520
#   14720
#     320
#     320
#       2
VARIABLES = "X", "Y"
ZONE N=     7520 E=    14720 ,F=FEPOINT, ET=TRIANGLE

   1.0000000000000000        0.0000000000000000     
   1.0024999999999999      -2.10213831208297304E-018
   1.0054930653213348      -4.61887322510091332E-018
   1.0090764413284457      -7.63197402155955264E-018
   1.0133665527125204      -1.12393370229862193E-017
   1.0185027861558553      -1.55581662634007940E-017
   1.0246520190364659      -2.07287814747014519E-017
   1.0320140413115726      -2.69191771062655741E-017
   1.0408280467381794      -3.43304805023364199E-017
   1.0513804043319526      -4.32034865746046629E-017
   1.0640139625608516      -5.38264812829643922E-017
   1.0791391885688439      -6.65446081110903003E-017
   1.0972475043455934      -8.17710818557309610E-017
   1.1189272531372612      -1.00000614068250572E-016
   1.1448828148506973      -1.21825486344029926E-016
   1.1759574915147981      -1.47954793684508687E-016
   1.2131609063528030      -1.79237483153023188E-016
   1.2577018066675492      -2.16689936355541837E-016
   1.3110273363127884      -2.61528991907291346E-016
   1.3748700537219793      -3.15211480792630061E-016
   1.4513042231208706      -3.79481559130889676E-016
   1.5428132078380112      -4.56427376200376293E-016
   1.6523701553369841      -5.48548918877357656E-016
   1.7835345954451736      -6.58839236771092930E-016
   1.9405680902772218      -7.90881687077785705E-016
   2.1285726933451472      -9.48966358660600938E-016
   2.3536567164227171      -1.13822945800025206E-015
   2.6231331899667172      -1.36482018569699443E-015
   2.9457574651187755      -1.63610052537905063E-015
   3.3320116770301382      -1.96088443620396702E-015
   3.7944453117867023      -2.34972422037099012E-015
   4.3480829420301754      -2.81525336978924272E-015
   5.0109123786972667      -3.37259703106694952E-015
   5.8044690990365311      -4.03986342492138164E-015
   6.7545359391003892      -4.83873218633651895E-015
   7.8919807838785037      -5.79515874077225648E-015
   9.2537594718130780      -6.94021760176639706E-015
   10.884116498289000      -8.31111198885788078E-015
   12.836022529224852      -9.95238256854430841E-015
   15.172895429904205      -1.19173545905389224E-014
   17.970660725660395      -1.42698704371090173E-014
   21.320218439245153      -1.70863638764128423E-014
   25.330396452981184      -2.04583434127917650E-014
   30.131486351098246      -2.44953654186263324E-014
   35.879476622564283      -2.93285936454779137E-014
   42.761120762122239      -3.51150607638323357E-014
   51.000000000000000      -4.20427662416594578E-014
  0.99883191874309463      -1.65634468068516895E-004
   1.0011424951004155      -1.12022175951427983E-003
   1.0039087774873727      -2.26307860679957756E-003
   1.0072206430399413      -3.63133668554344383E-003
   1.0111856950136677      -5.26945100799323159E-003
   1.0159327588376081      -7.23064427635576774E-003
   1.0216160676814476      -9.57863610034424481E-003
   1.0284202735258201      -1.23897132616072828E-002
   1.0365664465466262      -1.57552082883963690E-002
   1.0463192577346936      -1.97844668699192518E-002
   1.0579955781157058      -2.46084005223379983E-002
   1.0719747739609866      -3.03837399333278142E-002
   1.0887110324828499      -3.72981271773165646E-002
   1.1087481184791230      -4.55762122486215795E-002
   1.1327370413735427      -5.54869519902145836E-002
   1.1614572066581275      -6.73523485619492851E-002
   1.1958417389526457      -8.15579113630469643E-002
   1.2370077994330613      -9.85651823190507037E-002
   1.2862928826490228      -0.11892673148263457     
   1.3452982720221405      -0.14330411015870531     
   1.4159410659039555      -0.17248934485486295     
   1.5005164645319007      -0.20743067040049776     
   1.6017723416004492      -0.24926333830934178     
   1.7229985232945351      -0.29934650135609248     
   1.8681336754810955      -0.35930737275528724     
   2.0418932718475937      -0.43109409468406595     
   2.2499228007010741      -0.51703903385899919     
   2.4989811881510633      -0.61993456065448826     
   2.7971603971367167      -0.74312377384331063     
   3.1541483371199184      -0.89060911862650483     
   3.5815436264393097       -1.0671824269767800     
   4.0932324340248014       -1.2785806053354070     
   4.7058396441445218       -1.5316720279908309     
   5.4392690026281239       -1.8346796921017272     
   6.3173497940385683       -2.1974483847213246     
   7.3686110604789015       -2.6317645421395994     
   8.6272085165769337       -3.1517391938452115     
   10.134034276323831       -3.7742664330424986     
   11.938045447040800       -4.5195723095335802     
   14.097854756790234       -5.4118719786185832     
   16.683634895073080       -6.4801564569293246     
   19.779398439269375       -7.7591345470701789     
   23.485727442143972       -9.2903605344092295     
   27.923041365328537       -11.123584295141702     
   33.235509534672481       -13.318367680939845     
   39.595735234015855       -15.946019696889541     
   47.210359065160752       -19.091911463383326     
  0.99561835504395713      -6.20062835191559467E-004
  0.99752167625669164      -2.24097873712942285E-003
  0.99980038214357014      -4.18158160708556863E-003
   1.0025285083705853      -6.50492206810499365E-003
   1.0057946923715064      -9.28648597351750676E-003
   1.0097050531980087      -1.26166469592642397E-002
   1.0143866393514929      -1.66036027036245253E-002
   1.0199915566174265      -2.13768902940810919E-002
   1.0267019100164734      -2.70915949163824422E-002
   1.0347357204375087      -3.39333886070552274E-002
   1.0443540081852603      -4.21245627795672484E-002
   1.0558692735886264      -5.19312505222709053E-002
   1.0696556502065389      -6.36720733222091162E-002
   1.0861610605113130      -7.77284931487820102E-002
   1.1059217689903615      -9.45572062387973894E-002
   1.1295798054998205      -0.11470498125976472     
   1.1579038249587543      -0.13882642394669001     
   1.1918140811200932      -0.16770524538941056     
   1.2324123258217270      -0.20227972498190144     
   1.2810176051511366      -0.24367319533049456     
   1.3392091155489960      -0.29323053958252460     
   1.4088775122561670      -0.35256188698180546     
   1.4922863371270589      -0.42359492632934809     
   1.5921455616128011      -0.50863753702540460     
   1.7116996343422666      -0.61045277258946218     
   1.8548328939866283      -0.73234863288958874     
   2.0261957722950887      -0.87828554180102159     
   2.2313558876667572       -1.0530050222672647     
   2.4769789383227532       -1.2621837494453239     
   2.7710452723383243       -1.5126179871563659     
   3.1231091709439509       -1.8124444000235020     
   3.5446092692681264       -2.1714044155326384     
   4.0492402001614476       -2.6011607251991200     
   4.6533975358933306       -3.1156762080341487     
   5.3767104839769857       -3.7316675876194942     
   6.2426796445296402       -4.4691485622107301     
   7.2794405500478687       -5.3520800542880229     
   8.5206777951767858       -6.4091487063084038     
   10.006719456754597       -7.6746989161613399     
   11.785847362085523       -9.1898486943688695     
   13.915865776351543       -11.003825597481308     
   16.465979476169220       -13.175566142444573     
   19.519042228323269       -15.775630667271106     
   23.174248727255794       -18.888495852267578     
   27.550357452964832       -22.615299386348955     
   32.789549160688999       -27.077125953263753     
   39.062042609733098       -32.418938101592452     
  0.99052350022424651      -1.33655262892820505E-003
  0.99183357473726519      -3.46580244290935289E-003
  0.99340203017457762      -6.01499595438358559E-003
  0.99527982600556908      -9.06695703300968922E-003
  0.99752797223848422      -1.27208445796094458E-002
   1.0002195116492953      -1.70953742211233974E-002
   1.0034418929578970      -2.23326754079900547E-002
   1.0072998120566545      -2.86029092319085611E-002
   1.0119186136034570      -3.61097969979209954E-002
   1.0174483634978018      -4.50972391753627563E-002
   1.0240687245555691      -5.58572397788838909E-002
   1.0319947937942566      -6.87393936444602033E-002
   1.0414840909833825      -8.41622448441224913E-002
   1.0528449255196273      -0.10262688527684902     
   1.0664464134683702      -0.12473323525689319     
   1.0827304702275447      -0.15119953505951753     
   1.1022261684581578      -0.18288568070883168     
   1.1255669277738605      -0.22082116219272221     
   1.1535110946864415      -0.26623851182375091     
   1.1869665814542967      -0.32061334949077919     
   1.2270203643555937      -0.38571232588053617     
   1.2749737997916522      -0.46365052135516638     
   1.3323849056486661      -0.55696016538817839     
   1.4011189816487102      -0.66867290926870016     
   1.4834092133565997      -0.80241832513267930     
   1.5819292288803961      -0.96254183157667117     
   1.6998799656490533       -1.1542458772838888     
   1.8410936695883167       -1.3837589697502319     
   2.0101584056514574       -1.6585380408915611     
   2.2125671250799415       -1.9875107244362427     
   2.4548961326228151       -2.3813654167498588     
   2.7450187521548388       -2.8528985452334101     
   3.0923611327372846       -3.4174303271232636     
   3.5082085063177639       -4.0933025267896115     
   4.0060718474505226       -4.9024743837798619     
   4.6021268478938619       -5.8712360734429083     
   5.3157394684679273       -7.0310628806301816     
   6.1700951434707667       -8.4196378387688657     
   7.1929520806454059       -10.082076060080404     
   8.4175431315830700       -12.072390535708044     
   9.8836555345344586       -14.455247029928755     
   11.638923610715526       -17.308065085356539     
   13.740376414100975       -20.723533401268032     
   16.256290618194907       -24.812621310257043     
   19.268408840485801       -29.708184196770844     
   22.874595478445620       -35.569279998386136     
   27.192013760598734       -42.586332832251884     
  0.98365106936078928      -2.29555697620525663E-003
  0.98461079691301889      -4.60400299582351680E-003
  0.98575980781482209      -7.36773488682064027E-003
  0.98713543368843115      -1.06765469189848746E-002
  0.98878236892740323      -1.46379431382993343E-002
  0.99075412282750397      -1.93806301975381207E-002
  0.99311475811574312      -2.50586990643185265E-002
  0.99594097236276236      -3.18566314712430548E-002
  0.99932458990412865      -3.99952937688206264E-002
   1.0033755452336179      -4.97391129227944470E-002
   1.0082254547996063      -6.14046678056412512E-002
   1.0140318932530343      -7.53709749152319808E-002
   1.0209835130832026      -9.20918027059631356E-002
   1.0293061739795144      -0.11211041462774270     
   1.0392702810635066      -0.13607721987747795     
   1.0511995704119721      -0.16477090533994507     
   1.0654816273147962      -0.19912373529954483     
   1.0825804790080658      -0.24025184091626070     
   1.1030516710231746      -0.28949148357769594     
   1.1275603169858979      -0.34844247033164000     
   1.1569027083074579      -0.41902013197631921     
   1.1920321858712968      -0.50351755258815578     
   1.2340901142924707      -0.60468007233836796     
   1.2844429651103100      -0.72579448421165127     
   1.3447267137555980      -0.87079582264836575     
   1.4168999927597086       -1.0443952136971912     
   1.5033077281653990       -1.2522329405584236     
   1.6067573267005375       -1.5010616976517885     
   1.7306098890531503       -1.7989659871745867     
   1.8788894127875755       -2.1556247863936160     
   2.0564135329289961       -2.5826260197901738     
   2.2689500480073006       -3.0938430533287469     
   2.5234043171265919       -3.7058854432327308     
   2.8280436166332108       -4.4386385841961289     
   3.1927657457808074       -5.3159097903228139     
   3.6294206084508356       -6.3662018001081533     
   4.1521952191907872       -7.6236388368135710     
   4.7780746425028093       -9.1290753121435735     
   5.5273938414037085       -10.931423195256672     
   6.4244983649399749       -13.089241173627485     
   7.4985353405435733       -15.672637237953277     
   8.7844004707477552       -18.765546506515825     
   10.323871802398882       -22.468458296023666     
   12.166967104780531       -26.901681042078774     
   14.373568958169978       -32.209251147266883     
   17.015370352319213       -38.563612756223641     
   20.178202113952672       -46.171215949341416     
  0.97509104973848626      -3.47941148159164023E-003
  0.97567617667548656      -5.90997241841190527E-003
  0.97637670593297243      -8.81990347896702623E-003
  0.97721539786383693      -1.23037489768960569E-002
  0.97821950175725847      -1.64746998347919810E-002
  0.97942164117422537      -2.14682711826959770E-002
  0.98086087389435872      -2.74467052751050204E-002
  0.98258396091194333      -3.46042427782551412E-002
  0.98464688571113324      -4.31734336929879489E-002
  0.98711667318192398      -5.34326929565016109E-002
  0.99007356727388030      -6.57153462061838833E-002
  0.99361363814007808      -8.04204596044256620E-002
  0.99785190347795183      -9.80258055878550361E-002
   1.0029260654801140      -0.11910338580109650     
   1.0090009848095163      -0.14433801555865888     
   1.0162740369594128      -0.17454957364829229     
   1.0249815250274585      -0.21071964037692195     
   1.0354063572564205      -0.25402338933525304     
   1.0478872387865164      -0.30586776905164087     
   1.0628296762614835      -0.36793721506573462     
   1.0807191528304987      -0.44224837761743374     
   1.1021369016047189      -0.53121564306605962     
   1.1277787900515912      -0.63772957784536832     
   1.1584779288851388      -0.76525084361611517     
   1.1952317400201524      -0.91792263494057247     
   1.2392343630341920       -1.1007052926042922     
   1.2919154530306285       -1.3195374662021693     
   1.3549866304540097       -1.5815290621974196     
   1.4304970920226805       -1.8951922463792381     
   1.5209001895903500       -2.2707180060408598     
   1.6291331400987661       -2.7203072574453060     
   1.7587124564157610       -3.2585672563347168     
   1.9138481996280301       -3.9029861909497625     
   2.0995807648712881       -4.6745013771928905     
   2.3219446449001491       -5.5981795167238824     
   2.5881644921128850       -6.7040311197259932     
   2.9068898491302821       -8.0279855531212458     
   3.2884761743778141       -9.6130583937703733     
   3.7453212932554050       -11.510749014225002     
   4.2922682062688446       -13.782713808907042     
   4.9470873414495067       -16.502769424209600     
   5.7310539195517842       -19.759291077915243     
   6.6696391907531654       -23.658083889868156     
   7.7933380012925602       -28.325820514078444     
   9.1386595778728186       -33.914156761697747     
   10.749313720635159       -40.604658932380822     
   12.677629789745188       -48.614698147886905     
  0.96492935555421477      -4.86886793031844969E-003
  0.96540144782733961      -7.32388908820199268E-003
  0.96596664903180351      -1.02631045645237857E-002
  0.96664332268166675      -1.37820101301675286E-002
  0.96745345405577332      -1.79949358171996726E-002
  0.96842336450439870      -2.30387605272862998E-002
  0.96958456663583126      -2.90773592579470670E-002
  0.97097478816809146      -3.63069274380259377E-002
  0.97263919771096397      -4.49623553612338439E-002
  0.97463187230427206      -5.53248598245404816E-002
  0.97701755439304616      -6.77311209250606311E-002
  0.97987375532410204      -8.25842208720174165E-002
  0.98329327370710495      -0.10036674021823995     
  0.98738721046223821      -0.12165643701069763     
  0.99228857851404917      -0.14714501827919291     
  0.99815662441123865      -0.17766061375309583     
   1.0051820022827902      -0.21419468198222408     
   1.0135929682334357      -0.25793422304777758     
   1.0236627964357579      -0.31030034446154098     
   1.0357186578694255      -0.37299443326807846     
   1.0501522501797971      -0.44805343449189150     
   1.0674325240223803      -0.53791603193870041     
   1.0881209193749424      -0.64550188157994626     
   1.1128896068484693      -0.77430647183096812     
   1.1425433266612670      -0.92851469275459775     
   1.1780455348293724       -1.1131368040790994     
   1.2205497060688788       -1.3341712196618922     
   1.2714368104484961       -1.5987993973028383     
   1.3323601814172072       -1.9156191659208961     
   1.4052992329793135       -2.2949240709465077     
   1.4926237712999502       -2.7490378139242502     
   1.5971709902395790       -3.2927146523435433     
   1.7223376524196592       -3.9436187687778390     
   1.8721904508030307       -4.7228981841432667     
   2.0515981364615294       -5.6558718616473991     
   2.2663897053916862       -6.7728523255897333     
   2.5235437839036652       -8.1101305220834412     
   2.8314153657572714       -9.7111549200444358     
   3.2000072677854803       -11.627943161703639     
   3.6412951236596691       -13.922772127484640     
   4.1696164749169622       -16.670201325834142     
   4.8021366009045430       -19.959495348395187     
   5.5594062225604466       -23.897524096635731     
   6.4660291999518957       -28.612235008947064     
   7.5514619172141622       -34.256810101650224     
   8.8509703270861255       -41.014642887106248     
   10.406774818050314       -49.105292025601187     
  0.95325150884460774      -6.44355120691680276E-003
  0.95360907338454726      -8.91784860209343319E-003
  0.95403715899440000      -1.18801420933623281E-002
  0.95454967427176518      -1.54266772614954396E-002
  0.95516327095309950      -1.96726818305488632E-002
  0.95589788493237460      -2.47561094424940537E-002
  0.95677738398274914      -3.08421218020256613E-002
  0.95783034322587834      -3.81284548174373183E-002
  0.95909097354403383      -4.68518430846875458E-002
  0.96060023309935172      -5.72957114475858148E-002
  0.96240715807371768      -6.97993835346164826E-002
  0.96457045586532919      -8.47691064598299210E-002
  0.96716041250524620      -0.10269124988280877     
  0.97026117626632469      -0.12414810826813152     
  0.97397349165949909      -0.14983681976329219     
  0.97841797264556618      -0.18059201637366840     
  0.98373902140985792      -0.21741294134380884     
  0.99010952002167119      -0.26149591479484829     
  0.99773644741152312      -0.31427320243390011     
   1.0068676041630849      -0.37745955018852362     
   1.0177996636097937      -0.45310789668698986     
   1.0308878108180795      -0.54367607369534154     
   1.0465572826299376      -0.65210666162342590     
   1.0653171837034201      -0.78192259462322389     
   1.0877770274373049      -0.93734162151059164     
   1.1146665391983008       -1.1234133413714653     
   1.1468593652620855       -1.3461832661701485     
   1.1854014577769967       -1.6128892407906699     
   1.2315450579842200       -1.9321966022424641     
   1.2867893818169311       -2.3144797184057793     
   1.3529293297626428       -2.7721590535738705     
   1.4321138035831225       -3.3201047121271454     
   1.5269155246152113       -3.9761195715638564     
   1.6404146220648124       -4.7615177019879962     
   1.7762987070964931       -5.7018168650334751     
   1.9389826841483475       -6.8275675916701051     
   2.1337521921686409       -8.1753457758155328     
   2.3669353362122343       -9.7889410333424483     
   2.6461082889949150       -11.720779436532101     
   2.9803414424463082       -14.033626848936013     
   3.3804941067806058       -16.802628202378060     
   3.8595673319240924       -20.117748972664682     
   4.4331263145468913       -24.086698178097343     
   5.1198061147982434       -28.838427869665296     
   5.9419171135956192       -34.527322812140902     
   6.9261698819109609       -41.338216479757207     
   8.1045423076344836       -49.492391454739519     
  0.94014440994466075      -8.18471258742242691E-003
  0.94048329254555951      -1.06616378149591955E-002
  0.94088901164986105      -1.36270774157910574E-002
  0.94137474916237629      -1.71773791884961835E-002
  0.94195628680396859      -2.14278932349590730E-002
  0.94265251886320889      -2.65167197110849143E-002
  0.94348606607605423      -3.26091957318780032E-002
  0.94448401057863951      -3.99032672114378942E-002
  0.94567877581196125      -4.86359201701611135E-002
  0.94710917996675803      -5.90908804637636578E-002
  0.94882169719524423      -7.16078321000493540E-002
  0.95087196756675230      -8.65934536486060863E-002
  0.95332660482608089      -0.10453463131885923     
  0.95626536068902190      -0.12601427800235576     
  0.95978371599351708      -0.15173027224351490     
  0.96399598289352473      -0.18251813247025861     
  0.96903901888657251      -0.21937816317536665     
  0.97507667334458636      -0.26350795503408481     
  0.98230511101677986      -0.31634129489410601     
  0.99095918546640882      -0.37959474983223634     
   1.0013200695157825      -0.45532343880420928     
   1.0137243906144031      -0.54598780392107416     
   1.0285751679403963      -0.65453355076592512     
   1.0463549065841147      -0.78448735502980926     
   1.0676412742468786      -0.94007144499691520     
   1.0931258697943191       -1.1263407826897076     
   1.1236366934588344       -1.3493473007202281     
   1.1601650487530835       -1.6163365309397395     
   1.2038977501437289       -1.9359830133956986     
   1.2562556829199814       -2.3186721340859338     
   1.3189399680757341       -2.7768375484819567     
   1.3939872321126725       -3.3253651537874496     
   1.4838357774926796       -3.9820767350813311     
   1.5914048036323902       -4.7683089991171972     
   1.7201892523478008       -5.7096068087173215     
   1.8743733592987279       -6.8365531411023444     
   2.0589666007450473       -8.1857627356891705     
   2.2799664525553531       -9.8010717151971889     
   2.5445532495447765       -11.734961831119660     
   2.8613234761656159       -14.050265607615547     
   3.2405690682176980       -16.822207784329695     
   3.6946118001537691       -20.140849385077082     
   4.2382036222985588       -24.114013820731511     
   4.8890059550276685       -28.870790096058748     
   5.6681635122817893       -34.565726940470803     
   6.6009912980710910       -41.383854130951470     
   7.7177964279202849       -49.546689263322804     
  0.92569653135740138      -1.00732692546633366E-002
  0.92601631284403563      -1.25527328661741017E-002
  0.92639916359525554      -1.55212114866238836E-002
  0.92685752251794484      -1.90751516530207055E-002
  0.92740628179643514      -2.33300216794771961E-002
  0.92806327074291917      -2.84240632486667463E-002
  0.92884983507580787      -3.45227829151384322E-002
  0.92979153044691498      -4.18243294504420590E-002
  0.93091895275032399      -5.05659317412139250E-002
  0.93226873218985706      -6.10316064089780272E-002
  0.93388472340262396      -7.35613855739608441E-002
  0.93581943030602976      -8.85623645750382715E-002
  0.93813571196184209      -0.10652192858871694     
  0.94090882488122440      -0.12802358788297066     
  0.94422886812568407      -0.15376593619688558     
  0.94820371064581355      -0.18458534820812580     
  0.95296249596772031      -0.22148315353403494     
  0.95865983809519084      -0.26565817015577164     
  0.96548084495339559      -0.31854565428373532     
  0.97364713258694735      -0.38186393215415676     
  0.98342402551495911      -0.45767022883439690     
  0.99512917718425331      -0.54842750792737494     
   1.0091428906011848      -0.65708449381213418     
   1.0259204744617216      -0.78717147636110996     
   1.0460070362332257      -0.94291501085088081     
   1.0700551928184807       -1.1293752396922592     
   1.0988462742254232       -1.3526102975935728     
   1.1333157091545625       -1.6198731417178094     
   1.1745834172875278       -1.9398472018896356     
   1.2239901957290258       -2.3229285071804324     
   1.2831412818058741       -2.7815634552274564     
   1.3539585075882361       -3.3306531984881538     
   1.4387427406451665       -3.9880377860298468     
   1.5402486397486332       -4.7750757907302592     
   1.6617741543556321       -5.7173382541068003     
   1.8072676757266628       -6.8454394951979385     
   1.9814563210444698       -8.1960317766637996     
   2.1899995185128773       -9.8129961450309757     
   2.4396728834500649       -11.748868135748516     
   2.7385883595518523       -14.066544664532543     
   3.0964577777640709       -16.841327562282594     
   3.5249083958509737       -20.163370148478037     
   4.0378606706111242       -24.140606332773640     
   4.6519805366448903       -28.902257411962914     
   5.3872208863122708       -34.603030498930082     
   6.2674698436864782       -41.428144991490186     
   7.3213262640418266       -49.599345499469962     
  0.90999781318734307      -1.20888729440037385E-002
  0.91031197685872867      -1.45690546283933145E-002
  0.91068810181474769      -1.75383929444557982E-002
  0.91113840843968730      -2.10933623609027357E-002
  0.91167752729691698      -2.53494646324120172E-002
  0.91232297447917765      -3.04449814775755237E-002
  0.91309572071036871      -3.65454673829900406E-002
  0.91402087268907684      -4.38491285057052427E-002
  0.91512848881085096      -5.25932624357773187E-002
  0.91645455577222446      -6.30619680482596701E-002
  0.91804215778656639      -7.55953759394532993E-002
  0.91994287639984962      -9.06006993463636112E-002
  0.92221846638666305      -0.10856546459621835     
  0.92494286217670629      -0.13007335094632277     
  0.92820458000101391      -0.15582315445420597     
  0.93210959380417979      -0.18665149201845829     
  0.93678477836161556      -0.22355998324964516     
  0.94238203146949606      -0.26774779331638737     
  0.94908320913826838      -0.32065059409098562     
  0.95710603413527051      -0.38398720945095954     
  0.96671116984633676      -0.45981546025282355     
  0.97821068928773947      -0.55059902339383870     
  0.99197821442857070      -0.65928747722767167     
   1.0084610552524216      -0.78941213402748989     
   1.0281947429592013      -0.94520077311474215     
   1.0518204294940872       -1.1317150023587426     
   1.0801057187182044       -1.3550147109530264     
   1.1139696060304567       -1.6223549565761148     
   1.1545123367344137       -1.9424216838447539     
   1.2030511532553056       -2.3256139326051102     
   1.2611630926422319       -2.7843817050726818     
   1.3307362248560397       -3.3336304692001661     
   1.4140309965863560       -3.9912054406785580     
   1.5137536736721593       -4.7784713780024397     
   1.6331442682866348       -5.7210067282713437     
   1.7760818076602869       -6.8494346766801533     
   1.9472103645467698       -8.2004181006831125     
   2.1520899441895720       -9.8178507551156855     
   2.3973771301409821       -11.754283390146346     
   2.6910413581565704       -14.072631136950855     
   3.0426238449525771       -16.848217634452972     
   3.4635475844796910       -20.171222311268465     
   3.9674884835617603       -24.149610335592417     
   4.5708196951796927       -28.912640427759516     
   5.2931435858887133       -34.615064505095326     
   6.1579286211098365       -41.442155606462727     
   7.1932712408995849       -49.615722560735513     
  0.89313959356651584      -1.42111602862225548E-002
  0.89344782931626909      -1.66920856624832095E-002
  0.89381685720962178      -1.96623143458853310E-002
  0.89425866704570156      -2.32183497333752764E-002
  0.89478761332529966      -2.74757282132695041E-002
  0.89542088163182509      -3.25727729684569256E-002
  0.89617904699476991      -3.86750881276741176E-002
  0.89708674237703689      -4.59809392808376016E-002
  0.89817345900543644      -5.47276951725846547E-002
  0.89947450454726874      -6.51995398660922959E-002
  0.90103215026436290      -7.77367059471089916E-002
  0.90289700441586696      -9.27465287570714697E-002
  0.90512965653195254      -0.11071668080982307     
  0.90780264598125693      -0.13223101638110485     
  0.91100281879125955      -0.15798854106509030     
  0.91483414929521856      -0.18882612262311527     
  0.91942111828160722      -0.22574568100517869     
  0.92491275740288670      -0.26994674095411880     
  0.93148749124736141      -0.32286540483388437     
  0.93935893439412299      -0.38622101191784425     
  0.94878283179869516      -0.46207200010789012     
  0.96006536800407205      -0.55288278504413135     
  0.97357311514527933      -0.66160382952247454     
  0.98974494296036220      -0.79176750469344614     
   1.0091062777667310      -0.94760285759413598     
   1.0322861736802091       -1.1341730138361472     
   1.0600377507245220       -1.3575396796937402     
   1.0932626638699956       -1.6249600883019575     
   1.1330403980060268       -1.9451227887909341     
   1.1806633406475595       -2.3284299391983185     
   1.2376787718956748       -2.7873352749199234     
   1.3059391359155483       -3.3367487333694621     
   1.3876622272633781       -3.9945208811934387     
   1.4855032475295644       -4.7820228831901845     
   1.6026410734346603       -5.7248408562534641     
   1.7428815392478993       -6.8536071680562189     
   1.9107810891972781       -8.2049956895553500     
   2.1117948173657615       -9.8229133372949420     
   2.3524537049230858       -11.759926618984933     
   2.6405768131706235       -14.078969531141434     
   2.9855253265989834       -16.855388298766606     
   3.3985066998743525       -20.179389391119425     
   3.8929387905574471       -24.158970350159535     
   4.4848858083089045       -28.923428654938462     
   5.1935802446686843       -34.627562625730249     
   6.0420477410252378       -41.456700856220152     